2024-09-04 12:48:42.601748 
# LAMMPS Description 
 
# --------------- Header ----------------- 
 
448 atoms 
0 bonds 
0 angles 
0 dihedrals 
0 impropers 
1 atom types 
0 bond types 
0 angle types 
0 dihedral types
0 improper types
0.0 34.43317005446928 xlo xhi 
0.0 34.08 ylo yhi 
-10.27697550817039 10.27697550817039 zlo zhi 
0 0 0 xy xz yz 

# ------------Atom-Properties----------------- 
 
Masses 
 
1 12.011 

Atoms 
 
1 1 0.0 0.0  0 
2 1 1.2297560733739028 0.71  0 
3 1 1.2297560733739028 2.13  0 
4 1 0.0 2.84  0 
5 1 0.0 4.26  0 
6 1 1.2297560733739028 4.97  0 
7 1 1.2297560733739028 6.39  0 
8 1 0.0 7.1  0 
9 1 0.0 8.52  0 
10 1 1.2297560733739028 9.23  0 
11 1 1.2297560733739028 10.649999999999999  0 
12 1 0.0 11.36  0 
13 1 0.0 12.78  0 
14 1 1.2297560733739028 13.489999999999998  0 
15 1 1.2297560733739028 14.91  0 
16 1 0.0 15.62  0 
17 1 0.0 17.04  0 
18 1 1.2297560733739028 17.75  0 
19 1 1.2297560733739028 19.169999999999998  0 
20 1 0.0 19.88  0 
21 1 0.0 21.299999999999997  0 
22 1 1.2297560733739028 22.009999999999998  0 
23 1 1.2297560733739028 23.429999999999996  0 
24 1 0.0 24.139999999999997  0 
25 1 0.0 25.56  0 
26 1 1.2297560733739028 26.27  0 
27 1 1.2297560733739028 27.689999999999998  0 
28 1 0.0 28.4  0 
29 1 0.0 29.82  0 
30 1 1.2297560733739028 30.53  0 
31 1 1.2297560733739028 31.95  0 
32 1 0.0 32.66  0 
33 1 2.4595121467478056 0.0  0 
34 1 3.6892682201217086 0.71  0 
35 1 3.6892682201217086 2.13  0 
36 1 2.4595121467478056 2.84  0 
37 1 2.4595121467478056 4.26  0 
38 1 3.6892682201217086 4.97  0 
39 1 3.6892682201217086 6.39  0 
40 1 2.4595121467478056 7.1  0 
41 1 2.4595121467478056 8.52  0 
42 1 3.6892682201217086 9.23  0 
43 1 3.6892682201217086 10.649999999999999  0 
44 1 2.4595121467478056 11.36  0 
45 1 2.4595121467478056 12.78  0 
46 1 3.6892682201217086 13.489999999999998  0 
47 1 3.6892682201217086 14.91  0 
48 1 2.4595121467478056 15.62  0 
49 1 2.4595121467478056 17.04  0 
50 1 3.6892682201217086 17.75  0 
51 1 3.6892682201217086 19.169999999999998  0 
52 1 2.4595121467478056 19.88  0 
53 1 2.4595121467478056 21.299999999999997  0 
54 1 3.6892682201217086 22.009999999999998  0 
55 1 3.6892682201217086 23.429999999999996  0 
56 1 2.4595121467478056 24.139999999999997  0 
57 1 2.4595121467478056 25.56  0 
58 1 3.6892682201217086 26.27  0 
59 1 3.6892682201217086 27.689999999999998  0 
60 1 2.4595121467478056 28.4  0 
61 1 2.4595121467478056 29.82  0 
62 1 3.6892682201217086 30.53  0 
63 1 3.6892682201217086 31.95  0 
64 1 2.4595121467478056 32.66  0 
65 1 4.919024293495611 0.0  0 
66 1 6.148780366869514 0.71  0 
67 1 6.148780366869514 2.13  0 
68 1 4.919024293495611 2.84  0 
69 1 4.919024293495611 4.26  0 
70 1 6.148780366869514 4.97  0 
71 1 6.148780366869514 6.39  0 
72 1 4.919024293495611 7.1  0 
73 1 4.919024293495611 8.52  0 
74 1 6.148780366869514 9.23  0 
75 1 6.148780366869514 10.649999999999999  0 
76 1 4.919024293495611 11.36  0 
77 1 4.919024293495611 12.78  0 
78 1 6.148780366869514 13.489999999999998  0 
79 1 6.148780366869514 14.91  0 
80 1 4.919024293495611 15.62  0 
81 1 4.919024293495611 17.04  0 
82 1 6.148780366869514 17.75  0 
83 1 6.148780366869514 19.169999999999998  0 
84 1 4.919024293495611 19.88  0 
85 1 4.919024293495611 21.299999999999997  0 
86 1 6.148780366869514 22.009999999999998  0 
87 1 6.148780366869514 23.429999999999996  0 
88 1 4.919024293495611 24.139999999999997  0 
89 1 4.919024293495611 25.56  0 
90 1 6.148780366869514 26.27  0 
91 1 6.148780366869514 27.689999999999998  0 
92 1 4.919024293495611 28.4  0 
93 1 4.919024293495611 29.82  0 
94 1 6.148780366869514 30.53  0 
95 1 6.148780366869514 31.95  0 
96 1 4.919024293495611 32.66  0 
97 1 7.378536440243417 0.0  0 
98 1 8.60829251361732 0.71  0 
99 1 8.60829251361732 2.13  0 
100 1 7.378536440243417 2.84  0 
101 1 7.378536440243417 4.26  0 
102 1 8.60829251361732 4.97  0 
103 1 8.60829251361732 6.39  0 
104 1 7.378536440243417 7.1  0 
105 1 7.378536440243417 8.52  0 
106 1 8.60829251361732 9.23  0 
107 1 8.60829251361732 10.649999999999999  0 
108 1 7.378536440243417 11.36  0 
109 1 7.378536440243417 12.78  0 
110 1 8.60829251361732 13.489999999999998  0 
111 1 8.60829251361732 14.91  0 
112 1 7.378536440243417 15.62  0 
113 1 7.378536440243417 17.04  0 
114 1 8.60829251361732 17.75  0 
115 1 8.60829251361732 19.169999999999998  0 
116 1 7.378536440243417 19.88  0 
117 1 7.378536440243417 21.299999999999997  0 
118 1 8.60829251361732 22.009999999999998  0 
119 1 8.60829251361732 23.429999999999996  0 
120 1 7.378536440243417 24.139999999999997  0 
121 1 7.378536440243417 25.56  0 
122 1 8.60829251361732 26.27  0 
123 1 8.60829251361732 27.689999999999998  0 
124 1 7.378536440243417 28.4  0 
125 1 7.378536440243417 29.82  0 
126 1 8.60829251361732 30.53  0 
127 1 8.60829251361732 31.95  0 
128 1 7.378536440243417 32.66  0 
129 1 9.838048586991222 0.0  0 
130 1 11.067804660365125 0.71  0 
131 1 11.067804660365125 2.13  0 
132 1 9.838048586991222 2.84  0 
133 1 9.838048586991222 4.26  0 
134 1 11.067804660365125 4.97  0 
135 1 11.067804660365125 6.39  0 
136 1 9.838048586991222 7.1  0 
137 1 9.838048586991222 8.52  0 
138 1 11.067804660365125 9.23  0 
139 1 11.067804660365125 10.649999999999999  0 
140 1 9.838048586991222 11.36  0 
141 1 9.838048586991222 12.78  0 
142 1 11.067804660365125 13.489999999999998  0 
143 1 11.067804660365125 14.91  0 
144 1 9.838048586991222 15.62  0 
145 1 9.838048586991222 17.04  0 
146 1 11.067804660365125 17.75  0 
147 1 11.067804660365125 19.169999999999998  0 
148 1 9.838048586991222 19.88  0 
149 1 9.838048586991222 21.299999999999997  0 
150 1 11.067804660365125 22.009999999999998  0 
151 1 11.067804660365125 23.429999999999996  0 
152 1 9.838048586991222 24.139999999999997  0 
153 1 9.838048586991222 25.56  0 
154 1 11.067804660365125 26.27  0 
155 1 11.067804660365125 27.689999999999998  0 
156 1 9.838048586991222 28.4  0 
157 1 9.838048586991222 29.82  0 
158 1 11.067804660365125 30.53  0 
159 1 11.067804660365125 31.95  0 
160 1 9.838048586991222 32.66  0 
161 1 12.297560733739028 0.0  0 
162 1 13.52731680711293 0.71  0 
163 1 13.52731680711293 2.13  0 
164 1 12.297560733739028 2.84  0 
165 1 12.297560733739028 4.26  0 
166 1 13.52731680711293 4.97  0 
167 1 13.52731680711293 6.39  0 
168 1 12.297560733739028 7.1  0 
169 1 12.297560733739028 8.52  0 
170 1 13.52731680711293 9.23  0 
171 1 13.52731680711293 10.649999999999999  0 
172 1 12.297560733739028 11.36  0 
173 1 12.297560733739028 12.78  0 
174 1 13.52731680711293 13.489999999999998  0 
175 1 13.52731680711293 14.91  0 
176 1 12.297560733739028 15.62  0 
177 1 12.297560733739028 17.04  0 
178 1 13.52731680711293 17.75  0 
179 1 13.52731680711293 19.169999999999998  0 
180 1 12.297560733739028 19.88  0 
181 1 12.297560733739028 21.299999999999997  0 
182 1 13.52731680711293 22.009999999999998  0 
183 1 13.52731680711293 23.429999999999996  0 
184 1 12.297560733739028 24.139999999999997  0 
185 1 12.297560733739028 25.56  0 
186 1 13.52731680711293 26.27  0 
187 1 13.52731680711293 27.689999999999998  0 
188 1 12.297560733739028 28.4  0 
189 1 12.297560733739028 29.82  0 
190 1 13.52731680711293 30.53  0 
191 1 13.52731680711293 31.95  0 
192 1 12.297560733739028 32.66  0 
193 1 14.757072880486835 0.0  0 
194 1 15.986828953860737 0.71  0 
195 1 15.986828953860737 2.13  0 
196 1 14.757072880486835 2.84  0 
197 1 14.757072880486835 4.26  0 
198 1 15.986828953860737 4.97  0 
199 1 15.986828953860737 6.39  0 
200 1 14.757072880486835 7.1  0 
201 1 14.757072880486835 8.52  0 
202 1 15.986828953860737 9.23  0 
203 1 15.986828953860737 10.649999999999999  0 
204 1 14.757072880486835 11.36  0 
205 1 14.757072880486835 12.78  0 
206 1 15.986828953860737 13.489999999999998  0 
207 1 15.986828953860737 14.91  0 
208 1 14.757072880486835 15.62  0 
209 1 14.757072880486835 17.04  0 
210 1 15.986828953860737 17.75  0 
211 1 15.986828953860737 19.169999999999998  0 
212 1 14.757072880486835 19.88  0 
213 1 14.757072880486835 21.299999999999997  0 
214 1 15.986828953860737 22.009999999999998  0 
215 1 15.986828953860737 23.429999999999996  0 
216 1 14.757072880486835 24.139999999999997  0 
217 1 14.757072880486835 25.56  0 
218 1 15.986828953860737 26.27  0 
219 1 15.986828953860737 27.689999999999998  0 
220 1 14.757072880486835 28.4  0 
221 1 14.757072880486835 29.82  0 
222 1 15.986828953860737 30.53  0 
223 1 15.986828953860737 31.95  0 
224 1 14.757072880486835 32.66  0 
225 1 17.21658502723464 0.0  0 
226 1 18.446341100608542 0.71  0 
227 1 18.446341100608542 2.13  0 
228 1 17.21658502723464 2.84  0 
229 1 17.21658502723464 4.26  0 
230 1 18.446341100608542 4.97  0 
231 1 18.446341100608542 6.39  0 
232 1 17.21658502723464 7.1  0 
233 1 17.21658502723464 8.52  0 
234 1 18.446341100608542 9.23  0 
235 1 18.446341100608542 10.649999999999999  0 
236 1 17.21658502723464 11.36  0 
237 1 17.21658502723464 12.78  0 
238 1 18.446341100608542 13.489999999999998  0 
239 1 18.446341100608542 14.91  0 
240 1 17.21658502723464 15.62  0 
241 1 17.21658502723464 17.04  0 
242 1 18.446341100608542 17.75  0 
243 1 18.446341100608542 19.169999999999998  0 
244 1 17.21658502723464 19.88  0 
245 1 17.21658502723464 21.299999999999997  0 
246 1 18.446341100608542 22.009999999999998  0 
247 1 18.446341100608542 23.429999999999996  0 
248 1 17.21658502723464 24.139999999999997  0 
249 1 17.21658502723464 25.56  0 
250 1 18.446341100608542 26.27  0 
251 1 18.446341100608542 27.689999999999998  0 
252 1 17.21658502723464 28.4  0 
253 1 17.21658502723464 29.82  0 
254 1 18.446341100608542 30.53  0 
255 1 18.446341100608542 31.95  0 
256 1 17.21658502723464 32.66  0 
257 1 19.676097173982445 0.0  0 
258 1 20.905853247356347 0.71  0 
259 1 20.905853247356347 2.13  0 
260 1 19.676097173982445 2.84  0 
261 1 19.676097173982445 4.26  0 
262 1 20.905853247356347 4.97  0 
263 1 20.905853247356347 6.39  0 
264 1 19.676097173982445 7.1  0 
265 1 19.676097173982445 8.52  0 
266 1 20.905853247356347 9.23  0 
267 1 20.905853247356347 10.649999999999999  0 
268 1 19.676097173982445 11.36  0 
269 1 19.676097173982445 12.78  0 
270 1 20.905853247356347 13.489999999999998  0 
271 1 20.905853247356347 14.91  0 
272 1 19.676097173982445 15.62  0 
273 1 19.676097173982445 17.04  0 
274 1 20.905853247356347 17.75  0 
275 1 20.905853247356347 19.169999999999998  0 
276 1 19.676097173982445 19.88  0 
277 1 19.676097173982445 21.299999999999997  0 
278 1 20.905853247356347 22.009999999999998  0 
279 1 20.905853247356347 23.429999999999996  0 
280 1 19.676097173982445 24.139999999999997  0 
281 1 19.676097173982445 25.56  0 
282 1 20.905853247356347 26.27  0 
283 1 20.905853247356347 27.689999999999998  0 
284 1 19.676097173982445 28.4  0 
285 1 19.676097173982445 29.82  0 
286 1 20.905853247356347 30.53  0 
287 1 20.905853247356347 31.95  0 
288 1 19.676097173982445 32.66  0 
289 1 22.13560932073025 0.0  0 
290 1 23.365365394104153 0.71  0 
291 1 23.365365394104153 2.13  0 
292 1 22.13560932073025 2.84  0 
293 1 22.13560932073025 4.26  0 
294 1 23.365365394104153 4.97  0 
295 1 23.365365394104153 6.39  0 
296 1 22.13560932073025 7.1  0 
297 1 22.13560932073025 8.52  0 
298 1 23.365365394104153 9.23  0 
299 1 23.365365394104153 10.649999999999999  0 
300 1 22.13560932073025 11.36  0 
301 1 22.13560932073025 12.78  0 
302 1 23.365365394104153 13.489999999999998  0 
303 1 23.365365394104153 14.91  0 
304 1 22.13560932073025 15.62  0 
305 1 22.13560932073025 17.04  0 
306 1 23.365365394104153 17.75  0 
307 1 23.365365394104153 19.169999999999998  0 
308 1 22.13560932073025 19.88  0 
309 1 22.13560932073025 21.299999999999997  0 
310 1 23.365365394104153 22.009999999999998  0 
311 1 23.365365394104153 23.429999999999996  0 
312 1 22.13560932073025 24.139999999999997  0 
313 1 22.13560932073025 25.56  0 
314 1 23.365365394104153 26.27  0 
315 1 23.365365394104153 27.689999999999998  0 
316 1 22.13560932073025 28.4  0 
317 1 22.13560932073025 29.82  0 
318 1 23.365365394104153 30.53  0 
319 1 23.365365394104153 31.95  0 
320 1 22.13560932073025 32.66  0 
321 1 24.595121467478055 0.0  0 
322 1 25.824877540851958 0.71  0 
323 1 25.824877540851958 2.13  0 
324 1 24.595121467478055 2.84  0 
325 1 24.595121467478055 4.26  0 
326 1 25.824877540851958 4.97  0 
327 1 25.824877540851958 6.39  0 
328 1 24.595121467478055 7.1  0 
329 1 24.595121467478055 8.52  0 
330 1 25.824877540851958 9.23  0 
331 1 25.824877540851958 10.649999999999999  0 
332 1 24.595121467478055 11.36  0 
333 1 24.595121467478055 12.78  0 
334 1 25.824877540851958 13.489999999999998  0 
335 1 25.824877540851958 14.91  0 
336 1 24.595121467478055 15.62  0 
337 1 24.595121467478055 17.04  0 
338 1 25.824877540851958 17.75  0 
339 1 25.824877540851958 19.169999999999998  0 
340 1 24.595121467478055 19.88  0 
341 1 24.595121467478055 21.299999999999997  0 
342 1 25.824877540851958 22.009999999999998  0 
343 1 25.824877540851958 23.429999999999996  0 
344 1 24.595121467478055 24.139999999999997  0 
345 1 24.595121467478055 25.56  0 
346 1 25.824877540851958 26.27  0 
347 1 25.824877540851958 27.689999999999998  0 
348 1 24.595121467478055 28.4  0 
349 1 24.595121467478055 29.82  0 
350 1 25.824877540851958 30.53  0 
351 1 25.824877540851958 31.95  0 
352 1 24.595121467478055 32.66  0 
353 1 27.05463361422586 0.0  0 
354 1 28.284389687599763 0.71  0 
355 1 28.284389687599763 2.13  0 
356 1 27.05463361422586 2.84  0 
357 1 27.05463361422586 4.26  0 
358 1 28.284389687599763 4.97  0 
359 1 28.284389687599763 6.39  0 
360 1 27.05463361422586 7.1  0 
361 1 27.05463361422586 8.52  0 
362 1 28.284389687599763 9.23  0 
363 1 28.284389687599763 10.649999999999999  0 
364 1 27.05463361422586 11.36  0 
365 1 27.05463361422586 12.78  0 
366 1 28.284389687599763 13.489999999999998  0 
367 1 28.284389687599763 14.91  0 
368 1 27.05463361422586 15.62  0 
369 1 27.05463361422586 17.04  0 
370 1 28.284389687599763 17.75  0 
371 1 28.284389687599763 19.169999999999998  0 
372 1 27.05463361422586 19.88  0 
373 1 27.05463361422586 21.299999999999997  0 
374 1 28.284389687599763 22.009999999999998  0 
375 1 28.284389687599763 23.429999999999996  0 
376 1 27.05463361422586 24.139999999999997  0 
377 1 27.05463361422586 25.56  0 
378 1 28.284389687599763 26.27  0 
379 1 28.284389687599763 27.689999999999998  0 
380 1 27.05463361422586 28.4  0 
381 1 27.05463361422586 29.82  0 
382 1 28.284389687599763 30.53  0 
383 1 28.284389687599763 31.95  0 
384 1 27.05463361422586 32.66  0 
385 1 29.51414576097367 0.0  0 
386 1 30.74390183434757 0.71  0 
387 1 30.74390183434757 2.13  0 
388 1 29.51414576097367 2.84  0 
389 1 29.51414576097367 4.26  0 
390 1 30.74390183434757 4.97  0 
391 1 30.74390183434757 6.39  0 
392 1 29.51414576097367 7.1  0 
393 1 29.51414576097367 8.52  0 
394 1 30.74390183434757 9.23  0 
395 1 30.74390183434757 10.649999999999999  0 
396 1 29.51414576097367 11.36  0 
397 1 29.51414576097367 12.78  0 
398 1 30.74390183434757 13.489999999999998  0 
399 1 30.74390183434757 14.91  0 
400 1 29.51414576097367 15.62  0 
401 1 29.51414576097367 17.04  0 
402 1 30.74390183434757 17.75  0 
403 1 30.74390183434757 19.169999999999998  0 
404 1 29.51414576097367 19.88  0 
405 1 29.51414576097367 21.299999999999997  0 
406 1 30.74390183434757 22.009999999999998  0 
407 1 30.74390183434757 23.429999999999996  0 
408 1 29.51414576097367 24.139999999999997  0 
409 1 29.51414576097367 25.56  0 
410 1 30.74390183434757 26.27  0 
411 1 30.74390183434757 27.689999999999998  0 
412 1 29.51414576097367 28.4  0 
413 1 29.51414576097367 29.82  0 
414 1 30.74390183434757 30.53  0 
415 1 30.74390183434757 31.95  0 
416 1 29.51414576097367 32.66  0 
417 1 31.97365790772147 0.0  0 
418 1 33.20341398109537 0.71  0 
419 1 33.20341398109537 2.13  0 
420 1 31.97365790772147 2.84  0 
421 1 31.97365790772147 4.26  0 
422 1 33.20341398109537 4.97  0 
423 1 33.20341398109537 6.39  0 
424 1 31.97365790772147 7.1  0 
425 1 31.97365790772147 8.52  0 
426 1 33.20341398109537 9.23  0 
427 1 33.20341398109537 10.649999999999999  0 
428 1 31.97365790772147 11.36  0 
429 1 31.97365790772147 12.78  0 
430 1 33.20341398109537 13.489999999999998  0 
431 1 33.20341398109537 14.91  0 
432 1 31.97365790772147 15.62  0 
433 1 31.97365790772147 17.04  0 
434 1 33.20341398109537 17.75  0 
435 1 33.20341398109537 19.169999999999998  0 
436 1 31.97365790772147 19.88  0 
437 1 31.97365790772147 21.299999999999997  0 
438 1 33.20341398109537 22.009999999999998  0 
439 1 33.20341398109537 23.429999999999996  0 
440 1 31.97365790772147 24.139999999999997  0 
441 1 31.97365790772147 25.56  0 
442 1 33.20341398109537 26.27  0 
443 1 33.20341398109537 27.689999999999998  0 
444 1 31.97365790772147 28.4  0 
445 1 31.97365790772147 29.82  0 
446 1 33.20341398109537 30.53  0 
447 1 33.20341398109537 31.95  0 
448 1 31.97365790772147 32.66  0 

