LAMMPS (7 Feb 2024 - Development - patch_7Feb2024_update1-35-g81609d04e3)
