LAMMPS (7 Jan 2022)
OMP_NUM_THREADS environment is not set. Defaulting to 1 thread. (src/src/comm.cpp:98)
  using 1 OpenMP thread(s) per MPI task
Reading data file ...
  triclinic box = (0 0 -10.276976) to (34.43317 34.08 10.276976) with tilt (0 0 0)
  6 by 6 by 1 MPI processor grid
  reading atoms ...
  448 atoms
  read_data CPU = 0.006 seconds
Reading airebo potential file CH.airebo with DATE: 2011-10-25
WARNING: Using 'neigh_modify every 1 delay 0 check yes' setting during minimization (src/src/min.cpp:187)
Neighbor list info ...
  update every 1 steps, delay 0 steps, check yes
  max neighbors/atom: 2000, page size: 100000
  master list distance cutoff = 12.2
  ghost atom cutoff = 12.2
  binsize = 6.1, bins = 6 6 4
  1 neighbor lists, perpetual/occasional/extra = 1 0 0
  (1) pair airebo, perpetual
      attributes: full, newton on, ghost
      pair build: full/bin/ghost
      stencil: full/ghost/bin/2d
      bin: standard
Setting up cg style minimization ...
  Unit style    : metal
  Current step  : 0
WARNING: Energy due to 1 extra global DOFs will be included in minimizer energies
Per MPI rank memory allocation (min/avg/max) = 5.916 | 5.917 | 5.917 Mbytes
Step Temp E_pair E_mol TotEng Press Volume 
       0            0   -3319.0279            0   -3319.0279   -653900.67    1173.4824 
     165            0   -3327.1095            0   -3327.1095 -0.0002707843    1135.3708 
Loop time of 0.0482421 on 36 procs for 165 steps with 448 atoms

98.8% CPU use with 36 MPI tasks x 1 OpenMP threads

Minimization stats:
  Stopping criterion = energy tolerance
  Energy initial, next-to-last, final = 
     -3319.02791830841  -3327.10952506418  -3327.10952506422
  Force two-norm initial, final = 957.87319 3.9016677e-07
  Force max component initial, final = 957.87319 3.9016677e-07
  Final line search alpha, max atom move = 0.14200136 5.540421e-08
  Iterations, force evaluations = 165 167

MPI task timing breakdown:
Section |  min time  |  avg time  |  max time  |%varavg| %total
---------------------------------------------------------------
Pair    | 0.020548   | 0.027125   | 0.033092   |   1.9 | 56.23
Neigh   | 0          | 0          | 0          |   0.0 |  0.00
Comm    | 0.0075246  | 0.013372   | 0.019917   |   2.7 | 27.72
Output  | 0          | 0          | 0          |   0.0 |  0.00
Modify  | 1.8048e-05 | 2.3021e-05 | 2.9842e-05 |   0.0 |  0.05
Other   |            | 0.007722   |            |       | 16.01

Nlocal:        12.4444 ave          15 max           8 min
Histogram: 2 0 8 0 0 10 0 4 0 12
Nghost:        336.444 ave         350 max         323 min
Histogram: 2 6 0 6 8 4 2 0 0 8
Neighs:              0 ave           0 max           0 min
Histogram: 36 0 0 0 0 0 0 0 0 0
FullNghs:      2165.33 ave        2610 max        1392 min
Histogram: 2 0 8 0 0 10 0 4 0 12

Total # of neighbors = 77952
Ave neighs/atom = 174
Neighbor list builds = 0
Dangerous builds = 0
Setting up Verlet run ...
  Unit style    : metal
  Current step  : 165
  Time step     : 0.0001
Per MPI rank memory allocation (min/avg/max) = 4.792 | 4.792 | 4.792 Mbytes
Step Temp E_pair E_mol TotEng Press Volume 
     165            0   -3327.1095            0   -3327.1095 -0.00027078345    1135.3708 
 1400165    15427.717   -2620.9695            0   -2026.7012    4060264.6    1135.3708 
Loop time of 377.127 on 36 procs for 1400000 steps with 448 atoms

Performance: 32.074 ns/day, 0.748 hours/ns, 3712.274 timesteps/s
99.6% CPU use with 36 MPI tasks x 1 OpenMP threads

MPI task timing breakdown:
Section |  min time  |  avg time  |  max time  |%varavg| %total
---------------------------------------------------------------
Pair    | 211.59     | 239.62     | 252.89     |  62.4 | 63.54
Neigh   | 1.3457     | 1.5247     | 1.5669     |   5.0 |  0.40
Comm    | 113.84     | 127.24     | 154.27     |  83.8 | 33.74
Output  | 0.074531   | 0.10783    | 0.14518    |   6.7 |  0.03
Modify  | 1.5472     | 1.7282     | 1.9035     |   5.6 |  0.46
Other   |            | 6.913      |            |       |  1.83

Nlocal:        12.4444 ave          15 max          10 min
Histogram: 1 0 5 0 15 0 9 0 4 2
Nghost:        342.167 ave         347 max         335 min
Histogram: 1 0 2 5 1 9 6 6 2 4
Neighs:              0 ave           0 max           0 min
Histogram: 36 0 0 0 0 0 0 0 0 0
FullNghs:      2282.83 ave        2774 max        1806 min
Histogram: 1 2 3 4 11 1 8 4 0 2

Total # of neighbors = 82182
Ave neighs/atom = 183.44196
Neighbor list builds = 2586
Dangerous builds = 0
WARNING: Using 'neigh_modify every 1 delay 0 check yes' setting during minimization (src/src/min.cpp:187)
Setting up cg style minimization ...
  Unit style    : metal
  Current step  : 1400165
WARNING: Energy due to 1 extra global DOFs will be included in minimizer energies
Per MPI rank memory allocation (min/avg/max) = 5.917 | 5.917 | 5.917 Mbytes
Step Temp E_pair E_mol TotEng Press Volume 
 1400165    15427.356   -2620.9695            0   -2026.7151      4060245    1135.3708 
 1400166    15427.356   -2621.4284            0    -2027.174    4047510.3    1135.5979 
Loop time of 0.000535557 on 36 procs for 1 steps with 448 atoms

99.9% CPU use with 36 MPI tasks x 1 OpenMP threads

Minimization stats:
  Stopping criterion = max iterations
  Energy initial, next-to-last, final = 
     -2620.96945023249  -2620.96945023249   -2621.4283849924
  Force two-norm initial, final = 4582.0109 4564.6511
  Force max component initial, final = 4566.018 4548.6618
  Final line search alpha, max atom move = 2.1900921e-08 9.9619882e-05
  Iterations, force evaluations = 1 1

MPI task timing breakdown:
Section |  min time  |  avg time  |  max time  |%varavg| %total
---------------------------------------------------------------
Pair    | 0.00020024 | 0.00026723 | 0.00039367 |   0.0 | 49.90
Neigh   | 0          | 0          | 0          |   0.0 |  0.00
Comm    | 4.8375e-05 | 0.00017317 | 0.00024037 |   0.0 | 32.33
Output  | 2.5401e-05 | 2.6068e-05 | 2.6826e-05 |   0.0 |  4.87
Modify  | 2.57e-07   | 3.3361e-07 | 4.75e-07   |   0.0 |  0.06
Other   |            | 6.876e-05  |            |       | 12.84

Nlocal:        12.4444 ave          15 max          11 min
Histogram: 7 0 14 0 0 9 0 4 0 2
Nghost:        342.139 ave         348 max         335 min
Histogram: 1 0 1 7 6 3 10 6 1 1
Neighs:              0 ave           0 max           0 min
Histogram: 36 0 0 0 0 0 0 0 0 0
FullNghs:      2281.61 ave        2768 max        1989 min
Histogram: 7 0 14 0 1 8 0 4 0 2

Total # of neighbors = 82138
Ave neighs/atom = 183.34375
Neighbor list builds = 0
Dangerous builds = 0
Setting up Verlet run ...
  Unit style    : metal
  Current step  : 1400166
  Time step     : 0.0001
Per MPI rank memory allocation (min/avg/max) = 4.792 | 4.792 | 4.792 Mbytes
Step Temp E_pair E_mol TotEng Press Volume 
 1400166    15427.356   -2621.4284            0    -2027.174    4047510.3    1135.5979 
 2400166    13337.265   -2580.3141            0    -2066.569    4132887.9    1135.5979 
Loop time of 422.439 on 36 procs for 1000000 steps with 448 atoms

Performance: 20.453 ns/day, 1.173 hours/ns, 2367.205 timesteps/s
99.6% CPU use with 36 MPI tasks x 1 OpenMP threads

MPI task timing breakdown:
Section |  min time  |  avg time  |  max time  |%varavg| %total
---------------------------------------------------------------
Pair    | 226.26     | 252.99     | 261.79     |  55.8 | 59.89
Neigh   | 3.7786     | 4.2497     | 4.3727     |   7.9 |  1.01
Comm    | 149.7      | 158.44     | 184.73     |  70.4 | 37.51
Output  | 0.05958    | 0.083089   | 0.10929    |   5.5 |  0.02
Modify  | 1.2324     | 1.3745     | 1.519      |   4.6 |  0.33
Other   |            | 5.302      |            |       |  1.26

Nlocal:        12.4444 ave          15 max          10 min
Histogram: 2 0 8 0 8 0 10 0 6 2
Nghost:        344.472 ave         351 max         339 min
Histogram: 3 5 4 1 6 8 2 4 0 3
Neighs:              0 ave           0 max           0 min
Histogram: 36 0 0 0 0 0 0 0 0 0
FullNghs:      2280.22 ave        2756 max        1831 min
Histogram: 2 3 5 5 3 3 7 3 3 2

Total # of neighbors = 82088
Ave neighs/atom = 183.23214
Neighbor list builds = 7225
Dangerous builds = 0
WARNING: Using 'neigh_modify every 1 delay 0 check yes' setting during minimization (src/src/min.cpp:187)
Setting up cg style minimization ...
  Unit style    : metal
  Current step  : 2400166
WARNING: Energy due to 1 extra global DOFs will be included in minimizer energies
Per MPI rank memory allocation (min/avg/max) = 5.917 | 5.917 | 5.917 Mbytes
Step Temp E_pair E_mol TotEng Press Volume 
 2400166     13336.91   -2580.3141            0   -2066.5827    4132868.6    1135.5979 
 2400167     13336.91   -2580.7998            0   -2067.0684    4119097.6    1135.8251 
Loop time of 0.000544173 on 36 procs for 1 steps with 448 atoms

99.4% CPU use with 36 MPI tasks x 1 OpenMP threads

Minimization stats:
  Stopping criterion = max iterations
  Energy initial, next-to-last, final = 
      -2580.3141293639   -2580.3141293639   -2580.7997806048
  Force two-norm initial, final = 4848.5352 4829.7156
  Force max component initial, final = 4831.1639 4812.3291
  Final line search alpha, max atom move = 2.0698946e-08 9.961014e-05
  Iterations, force evaluations = 1 1

MPI task timing breakdown:
Section |  min time  |  avg time  |  max time  |%varavg| %total
---------------------------------------------------------------
Pair    | 0.00021221 | 0.00028606 | 0.00041912 |   0.0 | 52.57
Neigh   | 0          | 0          | 0          |   0.0 |  0.00
Comm    | 3.907e-05  | 0.00017164 | 0.00024603 |   0.0 | 31.54
Output  | 2.585e-05  | 2.6453e-05 | 2.6736e-05 |   0.0 |  4.86
Modify  | 2.82e-07   | 3.4564e-07 | 6.9e-07    |   0.0 |  0.06
Other   |            | 5.967e-05  |            |       | 10.97

Nlocal:        12.4444 ave          16 max          10 min
Histogram: 5 4 0 8 0 11 6 0 1 1
Nghost:        343.944 ave         350 max         339 min
Histogram: 3 4 5 4 4 6 5 0 4 1
Neighs:              0 ave           0 max           0 min
Histogram: 36 0 0 0 0 0 0 0 0 0
FullNghs:      2282.06 ave        2955 max        1827 min
Histogram: 5 4 1 7 7 4 6 0 1 1

Total # of neighbors = 82154
Ave neighs/atom = 183.37946
Neighbor list builds = 0
Dangerous builds = 0
Setting up Verlet run ...
  Unit style    : metal
  Current step  : 2400167
  Time step     : 0.0001
Per MPI rank memory allocation (min/avg/max) = 4.792 | 4.792 | 4.792 Mbytes
Step Temp E_pair E_mol TotEng Press Volume 
 2400167     13336.91   -2580.7998            0   -2067.0684    4119097.6    1135.8251 
 2550867    1221.1776   -3151.0474            0   -3104.0082    854701.77    1135.8251 
Loop time of 49.3276 on 36 procs for 150700 steps with 448 atoms

Performance: 26.396 ns/day, 0.909 hours/ns, 3055.086 timesteps/s
99.6% CPU use with 36 MPI tasks x 1 OpenMP threads

MPI task timing breakdown:
Section |  min time  |  avg time  |  max time  |%varavg| %total
---------------------------------------------------------------
Pair    | 26.587     | 30.582     | 32.63      |  23.1 | 62.00
Neigh   | 0.25752    | 0.28973    | 0.29742    |   2.0 |  0.59
Comm    | 15.505     | 17.53      | 21.444     |  30.4 | 35.54
Output  | 0.0078418  | 0.011102   | 0.014718   |   2.0 |  0.02
Modify  | 0.17313    | 0.19595    | 0.21871    |   1.8 |  0.40
Other   |            | 0.7195     |            |       |  1.46

Nlocal:        12.4444 ave          14 max          10 min
Histogram: 2 0 7 0 0 7 0 13 0 7
Nghost:        342.639 ave         345 max         338 min
Histogram: 1 1 2 0 5 4 0 11 8 4
Neighs:              0 ave           0 max           0 min
Histogram: 36 0 0 0 0 0 0 0 0 0
FullNghs:      2279.44 ave        2589 max        1812 min
Histogram: 2 0 7 0 5 2 1 12 0 7

Total # of neighbors = 82060
Ave neighs/atom = 183.16964
Neighbor list builds = 490
Dangerous builds = 0
WARNING: Using 'neigh_modify every 1 delay 0 check yes' setting during minimization (src/src/min.cpp:187)
Setting up cg style minimization ...
  Unit style    : metal
  Current step  : 2550867
WARNING: Energy due to 1 extra global DOFs will be included in minimizer energies
Per MPI rank memory allocation (min/avg/max) = 5.917 | 5.917 | 5.917 Mbytes
Step Temp E_pair E_mol TotEng Press Volume 
 2550867    1221.1703   -3151.0474            0   -3104.0085    854701.37    1135.8251 
 2552217    1221.1703   -3202.3893            0   -3155.3504    65057.175    1167.8845 
Loop time of 0.412052 on 36 procs for 1350 steps with 448 atoms

99.6% CPU use with 36 MPI tasks x 1 OpenMP threads

Minimization stats:
  Stopping criterion = energy tolerance
  Energy initial, next-to-last, final = 
     -3151.04742824855  -3202.38926907336  -3202.38929038517
  Force two-norm initial, final = 1121.6788 1.2400947
  Force max component initial, final = 1117.7628 0.75666121
  Final line search alpha, max atom move = 0.0001168343 8.8403981e-05
  Iterations, force evaluations = 1350 1360

MPI task timing breakdown:
Section |  min time  |  avg time  |  max time  |%varavg| %total
---------------------------------------------------------------
Pair    | 0.22194    | 0.2535     | 0.29823    |   3.8 | 61.52
Neigh   | 0          | 0          | 0          |   0.0 |  0.00
Comm    | 0.058884   | 0.10347    | 0.13482    |   6.0 | 25.11
Output  | 0.00010288 | 0.00014504 | 0.00019185 |   0.0 |  0.04
Modify  | 0.0001501  | 0.0001901  | 0.00025274 |   0.0 |  0.05
Other   |            | 0.05474    |            |       | 13.28

Nlocal:        12.4444 ave          14 max          10 min
Histogram: 1 0 4 0 0 12 0 16 0 3
Nghost:        342.722 ave         348 max         337 min
Histogram: 1 0 5 4 6 7 5 6 1 1
Neighs:              0 ave           0 max           0 min
Histogram: 36 0 0 0 0 0 0 0 0 0
FullNghs:      2281.28 ave        2581 max        1825 min
Histogram: 1 0 4 0 7 5 1 15 0 3

Total # of neighbors = 82126
Ave neighs/atom = 183.31696
Neighbor list builds = 0
Dangerous builds = 0
Setting up Verlet run ...
  Unit style    : metal
  Current step  : 2552217
  Time step     : 0.0001
Per MPI rank memory allocation (min/avg/max) = 4.792 | 4.792 | 4.792 Mbytes
Step Temp E_pair E_mol TotEng Press Volume 
 2552217    1221.1703   -3202.3893            0   -3155.3504    65057.175    1167.8845 
 3552217    305.85367   -3191.3485            0   -3179.5672     66624.49    1167.8845 
Loop time of 255.2 on 36 procs for 1000000 steps with 448 atoms

Performance: 33.856 ns/day, 0.709 hours/ns, 3918.491 timesteps/s
99.6% CPU use with 36 MPI tasks x 1 OpenMP threads

MPI task timing breakdown:
Section |  min time  |  avg time  |  max time  |%varavg| %total
---------------------------------------------------------------
Pair    | 148.26     | 165.34     | 192.17     |  86.2 | 64.79
Neigh   | 0.0082091  | 0.0091594  | 0.0094911  |   0.3 |  0.00
Comm    | 56.445     | 83.461     | 100.04     | 120.1 | 32.70
Output  | 0.049763   | 0.071031   | 0.094911   |   5.2 |  0.03
Modify  | 1.1047     | 1.2315     | 1.3843     |   5.3 |  0.48
Other   |            | 5.085      |            |       |  1.99

Nlocal:        12.4444 ave          14 max          10 min
Histogram: 1 0 3 0 0 14 0 15 0 3
Nghost:        335.389 ave         344 max         329 min
Histogram: 5 2 5 2 5 7 6 1 2 1
Neighs:              0 ave           0 max           0 min
Histogram: 36 0 0 0 0 0 0 0 0 0
FullNghs:      2217.56 ave        2512 max        1787 min
Histogram: 1 0 3 0 13 1 3 12 0 3

Total # of neighbors = 79832
Ave neighs/atom = 178.19643
Neighbor list builds = 16
Dangerous builds = 0
WARNING: Using 'neigh_modify every 1 delay 0 check yes' setting during minimization (src/src/min.cpp:187)
Setting up cg style minimization ...
  Unit style    : metal
  Current step  : 3552217
WARNING: Energy due to 1 extra global DOFs will be included in minimizer energies
Per MPI rank memory allocation (min/avg/max) = 5.917 | 5.917 | 5.917 Mbytes
Step Temp E_pair E_mol TotEng Press Volume 
 3552217    305.84637   -3191.3485            0   -3179.5675    66624.105    1167.8845 
 3552687    305.84637   -3202.4636            0   -3190.6825    17079.836    1168.0394 
Loop time of 0.160494 on 36 procs for 470 steps with 448 atoms

99.6% CPU use with 36 MPI tasks x 1 OpenMP threads

Minimization stats:
  Stopping criterion = energy tolerance
  Energy initial, next-to-last, final = 
     -3191.34853683084  -3202.46355927515  -3202.46358450568
  Force two-norm initial, final = 84.643938 1.5437667
  Force max component initial, final = 73.567334 1.3413228
  Final line search alpha, max atom move = 0.00022902062 0.00030719058
  Iterations, force evaluations = 470 482

MPI task timing breakdown:
Section |  min time  |  avg time  |  max time  |%varavg| %total
---------------------------------------------------------------
Pair    | 0.078404   | 0.089829   | 0.12231    |   2.7 | 55.97
Neigh   | 0          | 0          | 0          |   0.0 |  0.00
Comm    | 0.019244   | 0.051355   | 0.062902   |   3.5 | 32.00
Output  | 0          | 0          | 0          |   0.0 |  0.00
Modify  | 5.1319e-05 | 6.7708e-05 | 9.4404e-05 |   0.0 |  0.04
Other   |            | 0.01924    |            |       | 11.99

Nlocal:        12.4444 ave          14 max          11 min
Histogram: 4 0 0 17 0 0 10 0 0 5
Nghost:        336.111 ave         344 max         328 min
Histogram: 3 3 1 6 4 4 7 1 4 3
Neighs:              0 ave           0 max           0 min
Histogram: 36 0 0 0 0 0 0 0 0 0
FullNghs:      2218.22 ave        2515 max        1945 min
Histogram: 4 0 1 16 0 1 9 0 0 5

Total # of neighbors = 79856
Ave neighs/atom = 178.25
Neighbor list builds = 0
Dangerous builds = 0
Total wall time: 0:18:24
