448
 Atoms. Timestep: 0
1 0 0 0
1 1.22976 0.71 0
1 1.22976 2.13 0
1 0 2.84 0
1 0 4.26 0
1 1.22976 4.97 0
1 1.22976 6.39 0
1 0 7.1 0
1 0 8.52 0
1 1.22976 9.23 0
1 1.22976 10.65 0
1 0 11.36 0
1 0 12.78 0
1 1.22976 13.49 0
1 1.22976 14.91 0
1 0 15.62 0
1 0 17.04 0
1 1.22976 17.75 0
1 1.22976 19.17 0
1 0 19.88 0
1 0 21.3 0
1 1.22976 22.01 0
1 1.22976 23.43 0
1 0 24.14 0
1 0 25.56 0
1 1.22976 26.27 0
1 1.22976 27.69 0
1 0 28.4 0
1 0 29.82 0
1 1.22976 30.53 0
1 1.22976 31.95 0
1 0 32.66 0
1 2.45951 0 0
1 3.68927 0.71 0
1 3.68927 2.13 0
1 2.45951 2.84 0
1 2.45951 4.26 0
1 3.68927 4.97 0
1 3.68927 6.39 0
1 2.45951 7.1 0
1 2.45951 8.52 0
1 3.68927 9.23 0
1 3.68927 10.65 0
1 2.45951 11.36 0
1 2.45951 12.78 0
1 3.68927 13.49 0
1 3.68927 14.91 0
1 2.45951 15.62 0
1 2.45951 17.04 0
1 3.68927 17.75 0
1 3.68927 19.17 0
1 2.45951 19.88 0
1 2.45951 21.3 0
1 3.68927 22.01 0
1 3.68927 23.43 0
1 2.45951 24.14 0
1 2.45951 25.56 0
1 3.68927 26.27 0
1 3.68927 27.69 0
1 2.45951 28.4 0
1 2.45951 29.82 0
1 3.68927 30.53 0
1 3.68927 31.95 0
1 2.45951 32.66 0
1 4.91902 0 0
1 6.14878 0.71 0
1 6.14878 2.13 0
1 4.91902 2.84 0
1 4.91902 4.26 0
1 6.14878 4.97 0
1 6.14878 6.39 0
1 4.91902 7.1 0
1 4.91902 8.52 0
1 6.14878 9.23 0
1 6.14878 10.65 0
1 4.91902 11.36 0
1 4.91902 12.78 0
1 6.14878 13.49 0
1 6.14878 14.91 0
1 4.91902 15.62 0
1 4.91902 17.04 0
1 6.14878 17.75 0
1 6.14878 19.17 0
1 4.91902 19.88 0
1 4.91902 21.3 0
1 6.14878 22.01 0
1 6.14878 23.43 0
1 4.91902 24.14 0
1 4.91902 25.56 0
1 6.14878 26.27 0
1 6.14878 27.69 0
1 4.91902 28.4 0
1 4.91902 29.82 0
1 6.14878 30.53 0
1 6.14878 31.95 0
1 4.91902 32.66 0
1 7.37854 0 0
1 8.60829 0.71 0
1 8.60829 2.13 0
1 7.37854 2.84 0
1 7.37854 4.26 0
1 8.60829 4.97 0
1 8.60829 6.39 0
1 7.37854 7.1 0
1 7.37854 8.52 0
1 8.60829 9.23 0
1 8.60829 10.65 0
1 7.37854 11.36 0
1 7.37854 12.78 0
1 8.60829 13.49 0
1 8.60829 14.91 0
1 7.37854 15.62 0
1 7.37854 17.04 0
1 8.60829 17.75 0
1 8.60829 19.17 0
1 7.37854 19.88 0
1 7.37854 21.3 0
1 8.60829 22.01 0
1 8.60829 23.43 0
1 7.37854 24.14 0
1 7.37854 25.56 0
1 8.60829 26.27 0
1 8.60829 27.69 0
1 7.37854 28.4 0
1 7.37854 29.82 0
1 8.60829 30.53 0
1 8.60829 31.95 0
1 7.37854 32.66 0
1 9.83805 0 0
1 11.0678 0.71 0
1 11.0678 2.13 0
1 9.83805 2.84 0
1 9.83805 4.26 0
1 11.0678 4.97 0
1 11.0678 6.39 0
1 9.83805 7.1 0
1 9.83805 8.52 0
1 11.0678 9.23 0
1 11.0678 10.65 0
1 9.83805 11.36 0
1 9.83805 12.78 0
1 11.0678 13.49 0
1 11.0678 14.91 0
1 9.83805 15.62 0
1 9.83805 17.04 0
1 11.0678 17.75 0
1 11.0678 19.17 0
1 9.83805 19.88 0
1 9.83805 21.3 0
1 11.0678 22.01 0
1 11.0678 23.43 0
1 9.83805 24.14 0
1 9.83805 25.56 0
1 11.0678 26.27 0
1 11.0678 27.69 0
1 9.83805 28.4 0
1 9.83805 29.82 0
1 11.0678 30.53 0
1 11.0678 31.95 0
1 9.83805 32.66 0
1 12.2976 0 0
1 13.5273 0.71 0
1 13.5273 2.13 0
1 12.2976 2.84 0
1 12.2976 4.26 0
1 13.5273 4.97 0
1 13.5273 6.39 0
1 12.2976 7.1 0
1 12.2976 8.52 0
1 13.5273 9.23 0
1 13.5273 10.65 0
1 12.2976 11.36 0
1 12.2976 12.78 0
1 13.5273 13.49 0
1 13.5273 14.91 0
1 12.2976 15.62 0
1 12.2976 17.04 0
1 13.5273 17.75 0
1 13.5273 19.17 0
1 12.2976 19.88 0
1 12.2976 21.3 0
1 13.5273 22.01 0
1 13.5273 23.43 0
1 12.2976 24.14 0
1 12.2976 25.56 0
1 13.5273 26.27 0
1 13.5273 27.69 0
1 12.2976 28.4 0
1 12.2976 29.82 0
1 13.5273 30.53 0
1 13.5273 31.95 0
1 12.2976 32.66 0
1 14.7571 0 0
1 15.9868 0.71 0
1 15.9868 2.13 0
1 14.7571 2.84 0
1 14.7571 4.26 0
1 15.9868 4.97 0
1 15.9868 6.39 0
1 14.7571 7.1 0
1 14.7571 8.52 0
1 15.9868 9.23 0
1 15.9868 10.65 0
1 14.7571 11.36 0
1 14.7571 12.78 0
1 15.9868 13.49 0
1 15.9868 14.91 0
1 14.7571 15.62 0
1 14.7571 17.04 0
1 15.9868 17.75 0
1 15.9868 19.17 0
1 14.7571 19.88 0
1 14.7571 21.3 0
1 15.9868 22.01 0
1 15.9868 23.43 0
1 14.7571 24.14 0
1 14.7571 25.56 0
1 15.9868 26.27 0
1 15.9868 27.69 0
1 14.7571 28.4 0
1 14.7571 29.82 0
1 15.9868 30.53 0
1 15.9868 31.95 0
1 14.7571 32.66 0
1 17.2166 0 0
1 18.4463 0.71 0
1 18.4463 2.13 0
1 17.2166 2.84 0
1 17.2166 4.26 0
1 18.4463 4.97 0
1 18.4463 6.39 0
1 17.2166 7.1 0
1 17.2166 8.52 0
1 18.4463 9.23 0
1 18.4463 10.65 0
1 17.2166 11.36 0
1 17.2166 12.78 0
1 18.4463 13.49 0
1 18.4463 14.91 0
1 17.2166 15.62 0
1 17.2166 17.04 0
1 18.4463 17.75 0
1 18.4463 19.17 0
1 17.2166 19.88 0
1 17.2166 21.3 0
1 18.4463 22.01 0
1 18.4463 23.43 0
1 17.2166 24.14 0
1 17.2166 25.56 0
1 18.4463 26.27 0
1 18.4463 27.69 0
1 17.2166 28.4 0
1 17.2166 29.82 0
1 18.4463 30.53 0
1 18.4463 31.95 0
1 17.2166 32.66 0
1 19.6761 0 0
1 20.9059 0.71 0
1 20.9059 2.13 0
1 19.6761 2.84 0
1 19.6761 4.26 0
1 20.9059 4.97 0
1 20.9059 6.39 0
1 19.6761 7.1 0
1 19.6761 8.52 0
1 20.9059 9.23 0
1 20.9059 10.65 0
1 19.6761 11.36 0
1 19.6761 12.78 0
1 20.9059 13.49 0
1 20.9059 14.91 0
1 19.6761 15.62 0
1 19.6761 17.04 0
1 20.9059 17.75 0
1 20.9059 19.17 0
1 19.6761 19.88 0
1 19.6761 21.3 0
1 20.9059 22.01 0
1 20.9059 23.43 0
1 19.6761 24.14 0
1 19.6761 25.56 0
1 20.9059 26.27 0
1 20.9059 27.69 0
1 19.6761 28.4 0
1 19.6761 29.82 0
1 20.9059 30.53 0
1 20.9059 31.95 0
1 19.6761 32.66 0
1 22.1356 0 0
1 23.3654 0.71 0
1 23.3654 2.13 0
1 22.1356 2.84 0
1 22.1356 4.26 0
1 23.3654 4.97 0
1 23.3654 6.39 0
1 22.1356 7.1 0
1 22.1356 8.52 0
1 23.3654 9.23 0
1 23.3654 10.65 0
1 22.1356 11.36 0
1 22.1356 12.78 0
1 23.3654 13.49 0
1 23.3654 14.91 0
1 22.1356 15.62 0
1 22.1356 17.04 0
1 23.3654 17.75 0
1 23.3654 19.17 0
1 22.1356 19.88 0
1 22.1356 21.3 0
1 23.3654 22.01 0
1 23.3654 23.43 0
1 22.1356 24.14 0
1 22.1356 25.56 0
1 23.3654 26.27 0
1 23.3654 27.69 0
1 22.1356 28.4 0
1 22.1356 29.82 0
1 23.3654 30.53 0
1 23.3654 31.95 0
1 22.1356 32.66 0
1 24.5951 0 0
1 25.8249 0.71 0
1 25.8249 2.13 0
1 24.5951 2.84 0
1 24.5951 4.26 0
1 25.8249 4.97 0
1 25.8249 6.39 0
1 24.5951 7.1 0
1 24.5951 8.52 0
1 25.8249 9.23 0
1 25.8249 10.65 0
1 24.5951 11.36 0
1 24.5951 12.78 0
1 25.8249 13.49 0
1 25.8249 14.91 0
1 24.5951 15.62 0
1 24.5951 17.04 0
1 25.8249 17.75 0
1 25.8249 19.17 0
1 24.5951 19.88 0
1 24.5951 21.3 0
1 25.8249 22.01 0
1 25.8249 23.43 0
1 24.5951 24.14 0
1 24.5951 25.56 0
1 25.8249 26.27 0
1 25.8249 27.69 0
1 24.5951 28.4 0
1 24.5951 29.82 0
1 25.8249 30.53 0
1 25.8249 31.95 0
1 24.5951 32.66 0
1 27.0546 0 0
1 28.2844 0.71 0
1 28.2844 2.13 0
1 27.0546 2.84 0
1 27.0546 4.26 0
1 28.2844 4.97 0
1 28.2844 6.39 0
1 27.0546 7.1 0
1 27.0546 8.52 0
1 28.2844 9.23 0
1 28.2844 10.65 0
1 27.0546 11.36 0
1 27.0546 12.78 0
1 28.2844 13.49 0
1 28.2844 14.91 0
1 27.0546 15.62 0
1 27.0546 17.04 0
1 28.2844 17.75 0
1 28.2844 19.17 0
1 27.0546 19.88 0
1 27.0546 21.3 0
1 28.2844 22.01 0
1 28.2844 23.43 0
1 27.0546 24.14 0
1 27.0546 25.56 0
1 28.2844 26.27 0
1 28.2844 27.69 0
1 27.0546 28.4 0
1 27.0546 29.82 0
1 28.2844 30.53 0
1 28.2844 31.95 0
1 27.0546 32.66 0
1 29.5141 0 0
1 30.7439 0.71 0
1 30.7439 2.13 0
1 29.5141 2.84 0
1 29.5141 4.26 0
1 30.7439 4.97 0
1 30.7439 6.39 0
1 29.5141 7.1 0
1 29.5141 8.52 0
1 30.7439 9.23 0
1 30.7439 10.65 0
1 29.5141 11.36 0
1 29.5141 12.78 0
1 30.7439 13.49 0
1 30.7439 14.91 0
1 29.5141 15.62 0
1 29.5141 17.04 0
1 30.7439 17.75 0
1 30.7439 19.17 0
1 29.5141 19.88 0
1 29.5141 21.3 0
1 30.7439 22.01 0
1 30.7439 23.43 0
1 29.5141 24.14 0
1 29.5141 25.56 0
1 30.7439 26.27 0
1 30.7439 27.69 0
1 29.5141 28.4 0
1 29.5141 29.82 0
1 30.7439 30.53 0
1 30.7439 31.95 0
1 29.5141 32.66 0
1 31.9737 0 0
1 33.2034 0.71 0
1 33.2034 2.13 0
1 31.9737 2.84 0
1 31.9737 4.26 0
1 33.2034 4.97 0
1 33.2034 6.39 0
1 31.9737 7.1 0
1 31.9737 8.52 0
1 33.2034 9.23 0
1 33.2034 10.65 0
1 31.9737 11.36 0
1 31.9737 12.78 0
1 33.2034 13.49 0
1 33.2034 14.91 0
1 31.9737 15.62 0
1 31.9737 17.04 0
1 33.2034 17.75 0
1 33.2034 19.17 0
1 31.9737 19.88 0
1 31.9737 21.3 0
1 33.2034 22.01 0
1 33.2034 23.43 0
1 31.9737 24.14 0
1 31.9737 25.56 0
1 33.2034 26.27 0
1 33.2034 27.69 0
1 31.9737 28.4 0
1 31.9737 29.82 0
1 33.2034 30.53 0
1 33.2034 31.95 0
1 31.9737 32.66 0
